64
Lattice="10.840276 0 0 0 10.840276 0 0 0 10.840276 " PBC="1 1 1" Properties=species:S:1:pos:R:3:force:R:3 Energy="-276.987505904"
Si    3.81073e-03   9.99934e-03   2.14471e-02 -4.09671e-01  -3.45299e-01  -5.70719e-01
Si    2.70610e+00   2.72406e+00   1.87111e-02 -4.56276e-02  -2.59045e-01  -2.13291e-01
Si    1.98096e-02   2.72428e+00   2.69647e+00 -5.33659e-01  -5.06492e-01  -2.37319e-01
Si    2.73234e+00   1.08376e+01   2.70144e+00 -7.19653e-01   1.63119e-01   4.99513e-01
Si    1.34036e+00   1.33781e+00   1.33594e+00  5.26060e-01   3.50015e-01   5.31437e-01
Si    4.04920e+00   4.08954e+00   1.34441e+00  3.99881e-01  -3.29724e-01   4.85008e-01
Si    1.33746e+00   4.04299e+00   4.03689e+00  3.24844e-02   5.04375e-01   5.13251e-01
Si    4.04912e+00   1.38355e+00   4.07240e+00  2.83569e-01  -4.33530e-01  -3.08495e-01
Si    5.40172e+00   1.08151e+01   1.85954e-02  4.12234e-01   3.11650e-01  -2.43338e-02
Si    8.14880e+00   2.73246e+00   1.08384e+01 -9.37734e-02  -1.85467e-01  -1.34144e-01
Si    5.43806e+00   2.68589e+00   2.69958e+00 -4.23850e-01   7.39027e-01   1.32629e-01
Si    8.13902e+00   1.29322e-02   2.69121e+00 -2.24517e-01  -3.84396e-01   2.21546e-01
Si    6.79181e+00   1.37001e+00   1.36384e+00 -1.19092e-01  -3.43366e-01  -5.79849e-01
Si    9.51309e+00   4.08538e+00   1.33914e+00 -3.49671e-01  -3.43794e-01   3.54874e-01
Si    6.79251e+00   4.04733e+00   4.07743e+00 -2.17847e-01   2.01287e-01  -3.06082e-01
Si    9.46418e+00   1.36196e+00   4.04317e+00  5.63790e-01   1.92013e-02  -2.67234e-02
Si    1.08290e+01   5.38698e+00   1.08192e+01  2.50882e-01   1.05595e+00   2.23670e-01
Si    2.70324e+00   8.12711e+00   1.08187e+01  2.00355e-02   3.38304e-02   4.66063e-01
Si    1.84595e-02   8.14313e+00   2.69389e+00 -4.94775e-01   1.41011e-01   3.08656e-01
Si    2.70013e+00   5.41166e+00   2.73365e+00  1.91386e-01   3.85898e-01  -1.53397e-01
Si    1.34557e+00   6.78346e+00   1.37011e+00  1.41366e-01  -4.65740e-01  -5.33867e-01
Si    4.05285e+00   9.47645e+00   1.38713e+00  1.29095e-01  -3.47818e-01  -5.54201e-01
Si    1.33655e+00   9.48783e+00   4.09615e+00  3.18733e-01   2.59537e-01  -7.18518e-01
Si    4.09121e+00   6.78434e+00   4.08011e+00 -4.51426e-01  -2.43443e-01  -4.56744e-01
Si    5.41557e+00   5.44078e+00   1.14846e-02 -1.45035e-01  -2.15955e-01  -4.43710e-01
Si    8.14099e+00   8.12835e+00   1.14545e-02 -4.21333e-01  -2.65376e-01  -3.59709e-01
Si    5.42383e+00   8.12112e+00   2.70955e+00  3.40397e-01   1.67482e-01   2.13028e-01
Si    8.15277e+00   5.41799e+00   2.71748e+00 -1.22706e-02   7.28125e-02   8.19021e-02
Si    6.77916e+00   6.76058e+00   1.35425e+00  1.69124e-01   2.27365e-01   1.99279e-01
Si    9.45592e+00   9.47443e+00   1.33158e+00  6.59643e-01   2.99564e-01   4.41562e-01
Si    6.80262e+00   9.48052e+00   4.08852e+00 -5.73818e-01   4.71733e-01  -8.69636e-01
Si    9.50962e+00   6.79288e+00   4.08506e+00 -3.16647e-01   4.76335e-02  -6.61072e-01
Si    1.08166e+01   3.44421e-03   5.41650e+00  2.28623e-01   4.40903e-01   5.33990e-02
Si    2.67673e+00   2.70439e+00   5.39494e+00  3.78470e-01   4.62248e-01   7.49781e-01
Si    1.54266e-02   2.69705e+00   8.12700e+00  6.13878e-02   4.85468e-01   2.45734e-01
Si    2.73150e+00   1.92017e-02   8.15633e+00 -4.68453e-01  -3.67219e-01  -5.08118e-01
Si    1.34988e+00   1.36136e+00   6.79490e+00  1.45462e-01  -3.87832e-01  -3.96903e-01
Si    4.07951e+00   4.08371e+00   6.79827e+00 -7.76865e-01  -2.78132e-01  -4.85629e-01
Si    1.36175e+00   4.07557e+00   9.50667e+00 -1.58666e-01  -5.18031e-01  -3.49291e-01
Si    4.04994e+00   1.34565e+00   9.49939e+00  4.15496e-01   3.50930e-01   2.22108e-01
Si    5.42063e+00   1.54788e-02   5.40928e+00 -2.06415e-01  -2.27683e-01   2.07991e-01
Si    8.13373e+00   2.69000e+00   5.40859e+00  1.76561e-01   3.51934e-01   2.46409e-01
Si    5.40708e+00   2.69208e+00   8.11031e+00  3.99361e-02   1.46826e-01   4.79381e-01
Si    8.09737e+00   1.08316e+01   8.14273e+00  6.89413e-01   3.96918e-01  -5.42725e-01
Si    6.77326e+00   1.37958e+00   6.75865e+00 -2.88382e-02  -5.44277e-01   1.87679e-01
Si    9.49368e+00   4.04769e+00   6.78383e+00 -2.76056e-01   1.34094e-01  -8.75290e-02
Si    6.75567e+00   4.06196e+00   9.47996e+00 -1.50991e-01  -1.79435e-01   2.96401e-01
Si    9.50590e+00   1.36363e+00   9.46746e+00 -3.87887e-01  -2.54363e-01   3.14385e-01
Si    1.08184e+01   5.42148e+00   5.40320e+00  6.17884e-01  -2.54445e-01   4.95624e-01
Si    2.71459e+00   8.13208e+00   5.38683e+00 -3.14921e-01  -3.78526e-01   6.17719e-01
Si    1.67888e-02   8.12663e+00   8.13453e+00 -2.27772e-01   1.85024e-01  -1.45465e-01
Si    2.68210e+00   5.42499e+00   8.15414e+00  4.41675e-01  -4.34371e-01  -2.47666e-01
Si    1.37403e+00   6.75574e+00   6.80145e+00 -3.52700e-01   3.17398e-01  -8.01300e-01
Si    4.03137e+00   9.46768e+00   6.76072e+00  3.80539e-01   6.63375e-01   4.19594e-02
Si    1.35830e+00   9.50220e+00   9.48944e+00 -6.71328e-02  -3.66591e-03   1.16054e-02
Si    4.03583e+00   6.76052e+00   9.46320e+00  4.43082e-01   3.38120e-01   3.70568e-01
Si    5.40852e+00   5.41917e+00   5.40883e+00  3.72209e-01  -1.17023e-01   2.05638e-01
Si    8.11827e+00   8.14048e+00   5.38680e+00  4.95572e-01  -2.03313e-01   7.12221e-01
Si    5.39171e+00   8.15709e+00   8.13506e+00  1.73243e-01  -3.18481e-01  -9.73031e-02
Si    8.11632e+00   5.40022e+00   8.16325e+00 -1.24698e-01   4.88782e-01  -9.29574e-01
Si    6.74548e+00   6.80878e+00   6.74807e+00  3.52978e-01  -4.56876e-01   5.44393e-01
Si    9.49331e+00   9.49232e+00   6.75167e+00 -4.30475e-01  -2.60822e-01   5.01040e-01
Si    6.79493e+00   9.48376e+00   9.48309e+00 -6.04378e-01  -1.97740e-01   4.09116e-01
Si    9.47117e+00   6.78043e+00   9.47754e+00  2.77702e-01  -1.61834e-01   1.57740e-01
