64
Lattice="10.883724 0 0 0 10.883724 0 0 0 10.883724 " PBC="1 1 1" Properties=species:S:1:pos:R:3:force:R:3 Energy="-277.045331247"
Si    3.15467e-02   2.86551e-02   1.14649e-02 -3.64602e-01  -5.78672e-01  -4.05587e-01
Si    2.70905e+00   2.70571e+00   1.08767e+01  3.59630e-01   6.51582e-01   1.07638e-01
Si    1.08589e+01   2.72505e+00   2.70798e+00  2.47749e-01   1.84430e-01   1.35101e-01
Si    2.74589e+00   1.48724e-02   2.69950e+00 -2.53000e-01  -2.18558e-01   5.22072e-03
Si    1.35165e+00   1.38552e+00   1.35983e+00  2.37625e-01  -1.79285e-01   2.39922e-01
Si    4.10186e+00   4.10406e+00   1.37949e+00 -3.20608e-01  -5.07919e-01  -6.09608e-01
Si    1.36459e+00   4.07296e+00   4.06326e+00 -1.58522e-03  -1.97155e-01   2.96606e-01
Si    4.08184e+00   1.38033e+00   4.06630e+00 -1.16487e-01  -4.81889e-01   3.84072e-01
Si    5.41513e+00   3.06908e-02   2.86194e-02  4.08958e-01  -4.34733e-01  -4.80027e-01
Si    8.14649e+00   2.69115e+00   1.08581e+01  2.76314e-01   4.03588e-01   2.53613e-01
Si    5.41375e+00   2.70410e+00   2.72803e+00  7.46711e-01   6.24762e-01  -6.39511e-02
Si    8.19694e+00   1.08716e+01   2.70916e+00 -5.24037e-01   3.67205e-01  -3.53501e-02
Si    6.77725e+00   1.36788e+00   1.34711e+00  4.36299e-01  -1.86032e-01   5.31801e-01
Si    9.49585e+00   4.09418e+00   1.38042e+00 -2.22603e-01  -4.56646e-01  -4.12736e-01
Si    6.81857e+00   4.09402e+00   4.08453e+00 -8.76569e-01  -3.78000e-01  -8.23590e-02
Si    9.52685e+00   1.38756e+00   4.08729e+00 -4.27868e-02  -4.42650e-01   1.69269e-03
Si    1.08604e+01   5.42548e+00   1.33949e-02  2.73023e-01   1.39765e-02  -1.49052e-01
Si    2.73490e+00   8.16884e+00   1.08613e+01 -2.96296e-01  -3.26098e-01   3.39435e-01
Si    1.08658e+01   8.16303e+00   2.72412e+00  2.53666e-01   5.02475e-01  -3.64001e-02
Si    2.73552e+00   5.42301e+00   2.72692e+00 -5.56274e-01   4.50125e-01  -3.14567e-01
Si    1.32682e+00   6.81895e+00   1.36387e+00  6.66994e-01  -3.37446e-01  -9.83342e-02
Si    4.10338e+00   9.50350e+00   1.33453e+00 -5.17527e-01   4.33944e-01   2.25351e-01
Si    1.37778e+00   9.54052e+00   4.09519e+00  1.98875e-01  -4.12326e-01  -5.09665e-01
Si    4.06925e+00   6.77841e+00   4.07624e+00  4.09591e-01   3.95585e-01  -4.99014e-01
Si    5.45059e+00   5.44190e+00   1.08629e+01  1.73831e-01   1.84512e-02   1.78353e-01
Si    8.13722e+00   8.18182e+00   1.08692e+01  2.18267e-01  -3.66982e-01   4.03770e-02
Si    5.43196e+00   8.18176e+00   2.70448e+00  4.30525e-02  -6.20380e-01   2.56704e-01
Si    8.13932e+00   5.42502e+00   2.74740e+00  3.55716e-01   6.43108e-01  -3.83037e-01
Si    6.80757e+00   6.81372e+00   1.36304e+00 -1.55136e-01  -1.84223e-01  -3.86825e-02
Si    9.51439e+00   9.51326e+00   1.32537e+00  4.04476e-01   2.04961e-01   1.99311e-01
Si    6.80293e+00   9.51115e+00   4.05932e+00  8.40409e-02   3.20851e-01   9.13491e-02
Si    9.53858e+00   6.80399e+00   4.06714e+00 -4.93312e-01  -1.00409e-01   3.54147e-01
Si    2.49185e-02   1.08813e+01   5.43403e+00 -4.55684e-01   2.70042e-01   7.20278e-02
Si    2.73163e+00   2.70585e+00   5.45666e+00 -6.88323e-02   5.43300e-01  -4.57601e-01
Si    1.08705e+01   2.72322e+00   8.16023e+00  2.32664e-01  -1.97502e-01  -1.97451e-01
Si    2.69047e+00   1.08823e+01   8.16313e+00  4.69239e-01   2.42734e-01  -6.78957e-02
Si    1.35964e+00   1.38919e+00   6.77529e+00 -1.62806e-01  -4.54162e-01   5.53683e-01
Si    4.05585e+00   4.09904e+00   6.81538e+00  7.02810e-01  -2.78660e-01  -4.14559e-01
Si    1.35139e+00   4.07365e+00   9.49375e+00 -2.81244e-02   3.78009e-02   6.02409e-01
Si    4.10903e+00   1.37472e+00   9.53152e+00 -5.92918e-01  -1.55065e-01  -3.91275e-01
Si    5.44151e+00   1.08819e+01   5.42400e+00 -4.11745e-02  -5.83607e-03   2.16296e-01
Si    8.14598e+00   2.74429e+00   5.43074e+00  3.53522e-01  -2.31377e-01   1.31613e-01
Si    5.45607e+00   2.73792e+00   8.15767e+00 -3.48062e-01  -2.34880e-01  -3.07279e-01
Si    8.17674e+00   7.27574e-03   8.13745e+00 -2.47986e-01  -1.83308e-01   2.02045e-01
Si    6.81570e+00   1.38003e+00   6.79154e+00 -2.79529e-01  -2.29784e-01  -8.12331e-02
Si    9.53110e+00   4.05663e+00   6.79905e+00 -2.25604e-01   6.70614e-01  -7.05519e-02
Si    6.80381e+00   4.05778e+00   9.49330e+00  2.56348e-01   6.06138e-01   2.49475e-01
Si    9.53379e+00   1.35146e+00   9.50415e+00  2.49335e-03  -4.08388e-02   2.15313e-01
Si    7.98539e-03   5.44151e+00   5.43120e+00 -3.95246e-02  -1.72059e-01   2.73296e-02
Si    2.75730e+00   8.13209e+00   5.42136e+00 -6.38885e-01   3.79762e-01   1.92488e-01
Si    1.08633e+01   8.14589e+00   8.15161e+00 -4.10428e-02   3.79835e-02   1.33322e-01
Si    2.74316e+00   5.41905e+00   8.17785e+00 -6.17107e-01   7.53191e-01  -1.92833e-01
Si    1.35850e+00   6.81208e+00   6.78630e+00  3.41529e-01  -3.96711e-01   2.78498e-01
Si    4.06303e+00   9.50016e+00   6.80470e+00  2.16339e-01   4.09317e-01  -8.13048e-02
Si    1.36276e+00   9.49796e+00   9.51426e+00 -3.27838e-01   3.40915e-01   6.20548e-02
Si    4.08998e+00   6.81161e+00   9.51744e+00 -1.49668e-01  -3.63742e-01   1.35896e-01
Si    5.42928e+00   5.45824e+00   5.41250e+00  2.07180e-01  -3.58402e-01   5.94485e-01
Si    8.15662e+00   8.17567e+00   5.44115e+00  7.63660e-02  -3.92097e-01  -4.04254e-01
Si    5.42168e+00   8.15838e+00   8.17675e+00  5.93639e-01   1.41039e-01  -3.01135e-01
Si    8.16770e+00   5.47195e+00   8.15210e+00  2.17589e-02  -8.58239e-01  -2.33504e-02
Si    6.81857e+00   6.79724e+00   6.79244e+00 -5.68004e-01   3.37991e-01   6.63855e-03
Si    9.51071e+00   9.51457e+00   6.77341e+00  3.86683e-01   2.20445e-01   2.57317e-01
Si    6.79113e+00   9.54589e+00   9.53903e+00 -2.10912e-01   2.28537e-01  -3.71369e-01
Si    9.50450e+00   6.77669e+00   9.54065e+00  1.29136e-01   5.27212e-01  -9.11250e-02
