64
Lattice="10.818552 0 0 0 10.818552 0 0 0 10.818552 " PBC="1 1 1" Properties=species:S:1:pos:R:3:force:R:3 Energy="-277.028441263"
Si    1.94345e-02   1.08171e+01   1.08038e+01 -3.04999e-01  -1.19931e-01   2.19246e-01
Si    2.68520e+00   2.72035e+00   1.08027e+01  2.16397e-01   1.48205e-01   1.02038e-01
Si    3.11776e-02   2.68239e+00   2.68209e+00 -1.60307e-01   2.36139e-01   2.80997e-01
Si    2.69900e+00   1.07869e+01   2.69633e+00  3.02073e-01   4.62809e-01   1.44905e-01
Si    1.38077e+00   1.35736e+00   1.33078e+00 -1.63709e-01  -4.08709e-01   8.95550e-02
Si    4.04097e+00   4.05530e+00   1.36397e+00  3.24450e-01  -2.13461e-01  -4.73250e-01
Si    1.36085e+00   4.03752e+00   4.06283e+00 -1.18518e-01   5.53835e-01  -4.11985e-01
Si    4.07535e+00   1.34875e+00   4.05552e+00 -4.32722e-01  -9.92807e-02  -2.95316e-01
Si    5.38161e+00   1.08041e+01   1.08136e+01  2.45950e-02   5.24336e-01   2.40889e-01
Si    8.12878e+00   2.71278e+00   1.61835e-02 -1.46780e-01  -2.66976e-01  -4.59681e-01
Si    5.41869e+00   2.68501e+00   2.68381e+00 -2.75262e-02   9.03449e-02   1.05776e-03
Si    8.11994e+00   1.85428e-02   2.70031e+00  3.00302e-01  -2.76185e-01   3.88959e-01
Si    6.79162e+00   1.33116e+00   1.34617e+00 -5.66842e-01   1.77808e-01  -2.79391e-01
Si    9.48023e+00   4.03759e+00   1.35167e+00  7.81738e-02   3.29970e-01   1.64336e-01
Si    6.74564e+00   4.07048e+00   4.02317e+00 -1.34622e-01  -3.62267e-01   5.55580e-01
Si    9.48666e+00   1.37986e+00   4.07270e+00 -1.19312e-01  -3.43405e-01   4.86905e-03
Si    2.60034e-02   5.39731e+00   1.80991e-04 -5.50598e-01   3.94288e-01   2.32313e-01
Si    2.70135e+00   8.08305e+00   1.07998e+01  2.56727e-01   5.21754e-01   4.57081e-01
Si    1.08099e+01   8.10844e+00   2.71813e+00  5.30877e-01   2.18991e-01  -5.54716e-01
Si    2.72457e+00   5.41198e+00   2.68552e+00 -1.76769e-01  -1.61825e-01   7.62427e-01
Si    1.38040e+00   6.74396e+00   1.35939e+00 -5.21375e-01   2.84026e-01  -6.00784e-02
Si    4.07165e+00   9.43911e+00   1.37308e+00 -5.17378e-01  -4.04366e-03  -5.97651e-01
Si    1.35899e+00   9.46315e+00   4.06604e+00 -1.79398e-02  -3.41311e-01  -2.29956e-02
Si    4.07658e+00   6.76412e+00   4.05606e+00 -3.07694e-01  -1.68248e-01  -3.31891e-01
Si    5.38957e+00   5.41243e+00   1.08088e+01  1.81833e-01  -1.53018e-01   5.28528e-01
Si    8.10208e+00   8.11924e+00   5.58250e-03 -1.68510e-01  -2.80615e-01  -1.12954e-01
Si    5.40069e+00   8.10107e+00   2.69550e+00  5.53871e-01   9.16239e-02   4.25806e-01
Si    8.08784e+00   5.38775e+00   2.70011e+00  8.73860e-01   3.86752e-01  -1.43705e-02
Si    6.75464e+00   6.74321e+00   1.36598e+00 -7.96713e-02   1.54691e-01  -4.05550e-01
Si    9.44434e+00   9.44817e+00   1.34776e+00  5.19445e-01   4.19255e-01   7.40994e-02
Si    6.77481e+00   9.46616e+00   4.06153e+00 -4.42160e-01   2.94208e-01  -1.56703e-01
Si    9.49246e+00   6.78258e+00   4.04178e+00 -6.33216e-01  -6.82603e-01   2.90520e-01
Si    1.20035e-02   1.07901e+01   5.42664e+00 -1.93083e-03   6.71880e-01  -1.85625e-02
Si    2.69619e+00   2.70006e+00   5.38409e+00  6.26067e-01   4.48119e-02   4.39478e-01
Si    1.08097e+01   2.70598e+00   8.10309e+00 -8.88002e-02   6.67636e-02   1.03430e-01
Si    2.67896e+00   1.08153e+01   8.12038e+00  5.23948e-01   1.81017e-01  -2.97786e-01
Si    1.37684e+00   1.37611e+00   6.76954e+00 -4.97247e-01  -4.11115e-01  -2.21612e-01
Si    4.07847e+00   4.04207e+00   6.77322e+00 -5.01580e-01   9.58097e-02  -2.82832e-01
Si    1.32717e+00   4.06989e+00   9.47127e+00  1.80229e-01  -3.89136e-01  -3.19406e-01
Si    4.02326e+00   1.36945e+00   9.45538e+00  2.46815e-01  -3.63714e-01   1.75769e-01
Si    5.39693e+00   2.39178e-02   5.42887e+00  2.36964e-01  -6.49593e-01  -2.08004e-01
Si    8.09814e+00   2.73291e+00   5.42256e+00  1.06217e-01  -8.19547e-02  -6.12782e-01
Si    5.41120e+00   2.68672e+00   8.12141e+00  3.51904e-01   4.67927e-02  -7.69186e-02
Si    8.10618e+00   1.08046e+01   8.10944e+00 -3.61478e-02   7.23738e-02  -7.02806e-02
Si    6.78785e+00   1.34502e+00   6.73943e+00 -3.86397e-01   1.90397e-01   5.31044e-01
Si    9.44420e+00   4.06293e+00   6.75891e+00  6.10902e-01   3.28893e-03  -1.27495e-01
Si    6.75224e+00   4.06987e+00   9.48352e+00  2.87821e-01  -2.33346e-01  -2.77769e-01
Si    9.45641e+00   1.33307e+00   9.44813e+00  1.55461e-01   2.80001e-01   2.23842e-01
Si    1.58638e-02   5.42378e+00   5.42246e+00 -1.97482e-01  -2.82407e-01  -2.42560e-01
Si    2.73062e+00   8.08946e+00   5.39768e+00 -3.92574e-01   2.24837e-01   1.64271e-01
Si    1.08031e+01   8.11400e+00   8.13749e+00  4.26944e-01   2.38096e-01  -5.31981e-01
Si    2.68686e+00   5.39545e+00   8.12299e+00  5.76471e-01   8.03337e-02   8.52207e-02
Si    1.36949e+00   6.75339e+00   6.77177e+00 -2.11510e-01   3.51291e-01   7.34454e-02
Si    4.03870e+00   9.45223e+00   6.76748e+00  2.48417e-01   1.57609e-01   7.66834e-02
Si    1.38117e+00   9.47618e+00   9.46100e+00 -5.54331e-01  -4.46515e-01   1.65327e-01
Si    4.07121e+00   6.76303e+00   9.48269e+00 -3.87310e-01  -2.99763e-01  -5.80462e-01
Si    5.39127e+00   5.41619e+00   5.39216e+00  4.48430e-01  -9.17012e-02   3.90527e-01
Si    8.13328e+00   8.13553e+00   5.39762e+00 -3.57758e-01  -5.36996e-01   4.76976e-02
Si    5.41215e+00   8.08515e+00   8.10877e+00 -2.05828e-01   8.76217e-01   4.97061e-01
Si    8.14427e+00   5.40004e+00   8.10711e+00 -7.86768e-01   4.57779e-01   2.42189e-01
Si    6.74275e+00   6.79059e+00   6.77307e+00  7.12982e-01  -6.96957e-01  -5.63586e-01
Si    9.44526e+00   9.46072e+00   6.74860e+00  4.29208e-01  -1.73981e-03   4.75404e-01
Si    6.74798e+00   9.49365e+00   9.48620e+00 -2.88083e-02  -6.43636e-01  -4.48809e-01
Si    9.47365e+00   6.77153e+00   9.46519e+00 -1.06267e-01  -3.17880e-01   4.02784e-01
