64
Lattice="10.862 0 0 0 10.862 0 0 0 10.862 " PBC="1 1 1" Properties=species:S:1:pos:R:3:force:R:3 Energy="-277.001833523"
Si    4.53479e-03   1.08546e+01   2.61523e-02 -1.69640e-01  -1.72531e-02  -6.31098e-01
Si    2.73315e+00   2.70611e+00   5.96214e-04 -1.26144e-02   1.85947e-01   7.65416e-02
Si    2.10993e-02   2.72969e+00   2.74058e+00 -6.13322e-01  -2.78287e-01  -8.92910e-01
Si    2.70070e+00   1.08608e+01   2.72953e+00  1.38443e-01   2.89168e-02  -3.45441e-01
Si    1.35928e+00   1.34339e+00   1.33014e+00  7.15574e-02   4.12533e-01   6.83730e-01
Si    4.09862e+00   4.05833e+00   1.38027e+00 -3.42851e-01   2.65682e-01  -5.56327e-01
Si    1.35391e+00   4.05558e+00   4.06830e+00  3.81380e-01   5.97560e-01  -1.21973e-01
Si    4.07995e+00   1.33221e+00   4.07931e+00 -1.47331e-01   3.18323e-01  -1.49387e-01
Si    5.44953e+00   1.08441e+01   1.08353e+01 -1.11897e-01   2.28588e-01   9.61314e-01
Si    8.13774e+00   2.69828e+00   6.11504e-03  6.11547e-01   1.97943e-01  -3.07010e-01
Si    5.42400e+00   2.70239e+00   2.70314e+00  2.51227e-01  -2.07244e-01   3.46522e-01
Si    8.13328e+00   5.36643e-03   2.72980e+00  1.64021e-01  -7.75807e-02  -1.60577e-01
Si    6.81440e+00   1.37131e+00   1.35063e+00 -6.04771e-01  -5.20426e-01   6.51372e-02
Si    9.47159e+00   4.09964e+00   1.35064e+00  7.10604e-01  -9.74503e-01   7.59306e-02
Si    6.76396e+00   4.07845e+00   4.06211e+00  5.43130e-01  -1.36664e-01  -1.73576e-02
Si    9.48979e+00   1.36950e+00   4.07227e+00  2.41170e-01  -6.76962e-02   2.44789e-01
Si    1.08444e+01   5.41686e+00   1.35685e-02  1.20141e-01   5.09627e-01  -1.32558e-01
Si    2.73795e+00   8.13048e+00   1.08481e+01 -4.82037e-01   4.84823e-02   4.35772e-01
Si    1.27322e-02   8.12084e+00   2.71384e+00 -2.70952e-01   6.09367e-01   1.99290e-01
Si    2.72360e+00   5.43757e+00   2.69193e+00 -3.10192e-01  -2.12491e-01   3.79165e-01
Si    1.33492e+00   6.80408e+00   1.36874e+00  5.08365e-01  -4.45163e-01  -5.59501e-01
Si    4.05193e+00   9.50631e+00   1.35963e+00  3.19689e-01   1.03717e-01  -1.66142e-01
Si    1.37087e+00   9.48504e+00   4.05809e+00 -4.01544e-01   2.08601e-01   4.53232e-01
Si    4.04199e+00   6.78507e+00   4.09473e+00  5.95155e-01  -2.38653e-01  -3.02189e-01
Si    5.42343e+00   5.44625e+00   1.08605e+01  2.58422e-01  -3.42799e-01   1.53228e-01
Si    8.16326e+00   8.12144e+00   1.08462e+01  1.27807e-01   4.03576e-01   5.39453e-01
Si    5.40798e+00   8.14923e+00   2.71873e+00  5.63072e-02  -4.09896e-01  -1.16985e-01
Si    8.17475e+00   5.42763e+00   2.68471e+00 -6.08753e-01   1.23662e-01   9.03052e-01
Si    6.81054e+00   6.76774e+00   1.37241e+00 -4.20113e-01   4.80967e-01  -2.79587e-01
Si    9.52469e+00   9.51751e+00   1.38317e+00 -4.36775e-01  -4.47594e-01  -1.57526e-01
Si    6.76973e+00   9.49076e+00   4.05662e+00  2.28597e-01   6.09642e-02   3.24680e-01
Si    9.49475e+00   6.81038e+00   4.06255e+00  5.08384e-02  -4.10367e-01   1.46264e-01
Si    1.08484e+01   1.08594e+01   5.45011e+00  3.09809e-01   1.47443e-01  -5.36118e-01
Si    2.69322e+00   2.70287e+00   5.40719e+00  3.36836e-01  -2.88445e-02   4.26116e-01
Si    2.57047e-02   2.72055e+00   8.12259e+00 -5.53258e-01   4.52569e-01   8.66391e-01
Si    2.71066e+00   1.08600e+01   8.14613e+00  1.16736e-01  -1.83448e-01   1.29805e-02
Si    1.32812e+00   1.38410e+00   6.81711e+00  6.48193e-01  -6.46792e-01  -6.71743e-01
Si    4.07566e+00   4.08496e+00   6.76107e+00 -2.45846e-01  -7.39504e-01   6.15006e-01
Si    1.36052e+00   4.09338e+00   9.52792e+00  1.24200e-02  -4.38841e-01  -2.62905e-01
Si    4.09207e+00   1.33817e+00   9.52649e+00 -1.20445e-01   1.92568e-01  -5.69139e-01
Si    5.44722e+00   3.69526e-03   5.42474e+00 -5.27260e-02  -2.83281e-01  -6.99381e-02
Si    8.14340e+00   2.71729e+00   5.45197e+00 -2.36450e-01   7.97860e-02  -3.51890e-01
Si    5.46203e+00   2.69955e+00   8.15008e+00 -3.49000e-01   2.52947e-01  -6.37954e-02
Si    8.13119e+00   1.08596e+01   8.14305e+00  3.78831e-01  -2.46289e-01   4.06159e-03
Si    6.80050e+00   1.32814e+00   6.78364e+00 -1.15624e-01   3.99213e-01   4.89888e-02
Si    9.48605e+00   4.06943e+00   6.81167e+00  6.02143e-01   6.63169e-02  -5.79819e-01
Si    6.81687e+00   4.07436e+00   9.52554e+00 -4.52865e-01  -1.01462e-02  -2.01307e-01
Si    9.51402e+00   1.34585e+00   9.47533e+00  7.22542e-02   1.52013e-01   3.78992e-01
Si    4.81683e-03   5.42811e+00   5.40542e+00 -1.95533e-01   1.57138e-01   4.73622e-01
Si    2.72911e+00   8.14671e+00   5.42437e+00 -1.25444e-01   2.58595e-01  -5.71145e-02
Si    2.51059e-02   8.13256e+00   8.14135e+00 -3.08198e-01   4.51886e-01  -2.70686e-01
Si    2.70337e+00   5.42837e+00   8.14071e+00  1.65087e-01   7.11987e-02  -1.01807e-01
Si    1.38595e+00   6.81761e+00   6.76951e+00 -3.68696e-01  -6.17919e-01   1.41579e-02
Si    4.09606e+00   9.49050e+00   6.75599e+00 -3.95217e-01   4.35793e-01   3.58527e-01
Si    1.35483e+00   9.47871e+00   9.52766e+00  1.48159e-01   3.30178e-01  -2.45460e-01
Si    4.06013e+00   6.77955e+00   9.50124e+00  1.67803e-01  -7.42398e-02  -2.51004e-01
Si    5.42593e+00   5.40758e+00   5.44815e+00  2.02440e-01   8.00703e-01  -3.57673e-01
Si    8.13026e+00   8.13580e+00   5.44736e+00  1.63443e-01   4.13689e-01  -6.28460e-01
Si    5.40530e+00   8.13840e+00   8.13210e+00  5.75700e-01   2.54198e-01   4.70848e-01
Si    8.15775e+00   5.41188e+00   8.14364e+00 -2.16973e-01   6.03812e-01   1.87945e-01
Si    6.80151e+00   6.81420e+00   6.78673e+00 -3.77034e-01  -8.13497e-01   2.91529e-01
Si    9.49341e+00   9.50791e+00   6.76468e+00  6.71922e-02  -3.05555e-01   6.60573e-01
Si    6.80717e+00   9.51342e+00   9.53102e+00 -2.36060e-01  -6.72231e-01  -7.50931e-01
Si    9.52433e+00   6.79639e+00   9.48474e+00 -6.32868e-02  -4.57299e-01   6.85193e-02
